
data_JUC-597

_audit_creation_method RASPA-1.0
_audit_creation_date 2022-6-6
_audit_author_name 'By Student'

_citation_author_name        'Chengyang Yu, Hui Li, Yujie Wang, et al.,''
_citation_title              'Three-Dimensional Triptycene-Functionalized Covalent Organic Frameworks with hea Net for Hydrogen Adsorption'
_citation_journal_abbrev     'Angew. Chem. Int.'
_citation_journal_volume     0000
_citation_journal_number     0000
_citation_page_first         e202117101
_citation_page_last          e202117106
_citation_year               2022

_cell_length_a                         49.35690
_cell_length_b                         111.4520
_cell_length_c                         36.46580
_cell_angle_alpha                      90
_cell_angle_beta                       90
_cell_angle_gamma                      90
_cell_volume                           201.191

_symmetry_cell_setting                 Orthorhombic
_symmetry_space_group_name_Hall        'I b a m'
_symmetry_space_group_name_H-M         'I b a m'
_symmetry_Int_Tables_number            72

loop_
_space_group_symop_operation_xyz
   'x, y, z'
   '-x, -y, -z'
   '-x, -y, z'
   'x, y, -z'
   '-x+1/2, y+1/2, -z'
   'x+1/2, -y+1/2, z'
   'x+1/2, -y+1/2, -z'
   '-x+1/2, y+1/2, z'
   'x+1/2, y+1/2, z+1/2'
   '-x+1/2, -y+1/2, -z+1/2'
   '-x+1/2, -y+1/2, z+1/2'
   'x+1/2, y+1/2, -z+1/2'
   '-x, y, -z+1/2'
   'x, -y, z+1/2'
   'x, -y, -z+1/2'
   '-x, y, z+1/2'

loop_
_atom_site_label
_atom_site_type_symbol
_atom_site_fract_x
_atom_site_fract_y
_atom_site_fract_z
_atom_site_charge
C1     C     0.22342     0.63948     0.01943     0
C2     C     0.27110     0.64459     0.01950     0
C3     C     0.24715     0.64190     0.03876     0
C4     C     0.29459     0.64905     0.04051     0
C5     C     0.33935     0.65807     0.07971     0
C6     C     0.36305     0.66289     0.09971     0
N7     N     0.36090     0.67271     0.11866     0
C8     C     0.48040     0.71479     0.22962     0
C9     C     0.01722     0.50866     0.22648     0
C10     C     0.04587     0.52654     0.18685     0
C11     C     0.06050     0.53605     0.16637     0
N12     N     0.10265     0.56343     0.10797     0
C13     C     0.09440     0.57429     0.10129     0
C14     C     0.11118     0.58287     0.08023     0
C15     C     0.14151     0.59986     0.04042     0
C16     C     0.17007     0.61812     0.03878     0
C17     C     0.15710     0.60883     0.01947     0
C18     C     0.18271     0.62733     0.01942     0
C19     C     0.17964     0.64893     0.01944     0
C20     C     0.16758     0.65829     0.03879     0
C21     C     0.15542     0.66781     0.01950     0
C22     C     0.14486     0.67809     0.04063     0
C23     C     0.12515     0.69781     0.08084     0
C24     C     0.11503     0.70811     0.10228     0
N25     N     0.09027     0.71187     0.09847     0
C26     C     0.07851     0.72156     0.11894     0
C27     C     0.05348     0.74032     0.15847     0
C28     C     0.04028     0.75005     0.17993     0
C29     C     0.01502     0.76801     0.22357     0
C30     C     0.19528     0.63851     0.03661     0
C31     C     0.39881     0.09453     0.07469     0
C32     C     0.38377     0.10295     0.05500     0
C33     C     0.34826     0.08827     0.04589     0
C34     C     0.36327     0.07978     0.06558     0
C35     C     0.15967     0.14655     0.06396     0
C36     C     0.18204     0.14205     0.04477     0
C37     C     0.20651     0.16048     0.05638     0
C38     C     0.18437     0.16496     0.07585     0
C39     C     0.01913     0.21318     0.19117     0
C40     C     0.03759     0.20553     0.17392     0
C41     C     0.05663     0.19908     0.19455     0
C42     C     0.05593     0.19990     0.23289     0
C43     C     0.03735     0.20746     0.25018     0
C44     C     0.07760     0.19177     0.17601     0
C45     C     0.00668     0.51353     0.19370     0
C46     C     0.02099     0.52218     0.17393     0
C47     C     0.05600     0.52217     0.22022     0
C48     C     0.04170     0.51351     0.24003     0
C49     C     0.08856     0.53525     0.15989     0
C50     C     0.10197     0.54434     0.14061     0
C51     C     0.08784     0.55438     0.12773     0
C52     C     0.05969     0.55509     0.13367     0
C53     C     0.04626     0.54603     0.15289     0
C54     C     0.84680     0.30417     0.07765     0
C55     C     0.83707     0.31394     0.05751     0
C56     C     0.88309     0.32013     0.04450     0
C57     C     0.89290     0.31027     0.06407     0
C58     C     1.00034     0.23964     0.20069     0
C59     C     0.98793     0.24844     0.17919     0
C60     C     0.94426     0.24253     0.20293     0
C61     C     0.95666     0.23386     0.22488     0
C62     C     0.92602     0.26666     0.17468     0
C63     C     0.91358     0.27592     0.15515     0
C64     C     0.94214     0.27164     0.10286     0
C65     C     0.95439     0.26223     0.12213     0
C66     C     0.42967     0.68361     0.14834     0
C67     C     0.40979     0.67706     0.12971     0
C68     C     0.38223     0.67863     0.13842     0
C69     C     0.37503     0.68681     0.16583     0
C70     C     0.39484     0.69329     0.18472     0
F71     F     0.61302     0.29862     0.21042     0
F72     F     0.47339     0.24452     0.89513     0
F73     F     0.10289     0.47445     0.32869     0
F74     F     0.14728     0.43136     0.57017     0
F75     F     0.17119     0.29659     0.59364     0
F76     F     0.63719     0.63962     0.56733     0
H77     H     0.24664     0.64241     0.06842     0
H78     H     0.38196     0.65798     0.09898     0
H79     H     0.07517     0.57742     0.11182     0
H80     H     0.16952     0.61837     0.06847     0
H81     H     0.16825     0.65835     0.06848     0
H82     H     0.12887     0.71277     0.12040     0
H83     H     0.19526     0.63854     0.06709     0
H84     H     0.41836     0.09713     0.08561     0
H85     H     0.39188     0.11189     0.05095     0
H86     H     0.32863     0.08582     0.03494     0
H87     H     0.18114     0.13311     0.03324     0
H88     H     0.22448     0.16598     0.05338     0
H89     H     0.18576     0.17387     0.08755     0
H90     H     0.00454     0.21774     0.17405     0
H91     H     0.03735     0.20483     0.14429     0
H92     H     0.06986     0.19471     0.24948     0
H93     H     0.03735     0.20791     0.27985     0
H94     H     -0.01291     0.51077     0.18343     0
H95     H     0.01246     0.52554     0.14856     0
H96     H     0.07461     0.52574     0.23158     0
H97     H     0.04962     0.51076     0.26639     0
H98     H     0.12354     0.54357     0.13570     0
H99     H     0.04780     0.56247     0.12321     0
H100     H     0.02466     0.54687     0.15747     0
H101     H     0.81541     0.31529     0.05497     0
H102     H     0.89730     0.32642     0.03257     0
H103     H     0.91460     0.30907     0.06656     0
H104     H     1.02221     0.23894     0.20008     0
H105     H     1.00058     0.25430     0.16286     0
H106     H     0.92248     0.24357     0.20445     0
H107     H     0.94383     0.22899     0.24367     0
H108     H     0.91992     0.26511     0.20281     0
H109     H     0.89831     0.28128     0.16873     0
H110     H     0.94847     0.27353     0.07502     0
H111     H     0.45075     0.68235     0.14104     0
H112     H     0.41604     0.67108     0.10796     0
H113     H     0.35387     0.68824     0.17233     0
C114     H     0.50000     0.72334     0.25000     0
C115     H     0.00000     0.50000     0.25000     0
