
data_JUC-596

_audit_creation_method RASPA-1.0
_audit_creation_date 2022-6-6
_audit_author_name 'By Student'

_citation_author_name        'Chengyang Yu, Hui Li, Yujie Wang, et al.,''
_citation_title              'Three-Dimensional Triptycene-Functionalized Covalent Organic Frameworks with hea Net for Hydrogen Adsorption'
_citation_journal_abbrev     'Angew. Chem. Int.'
_citation_journal_volume     0000
_citation_journal_number     0000
_citation_page_first         e202117101
_citation_page_last          e202117106
_citation_year               2022

_cell_length_a                         48.81790
_cell_length_b                         110.72940
_cell_length_c                         37.21920
_cell_angle_alpha                      90
_cell_angle_beta                       90
_cell_angle_gamma                      90
_cell_volume                           201.191

_symmetry_cell_setting                 Orthorhombic
_symmetry_space_group_name_Hall        'I b a m'
_symmetry_space_group_name_H-M         'I b a m'
_symmetry_Int_Tables_number            72

loop_
_space_group_symop_operation_xyz
   'x, y, z'
   '-x, -y, -z'
   '-x, -y, z'
   'x, y, -z'
   '-x+1/2, y+1/2, -z'
   'x+1/2, -y+1/2, z'
   'x+1/2, -y+1/2, -z'
   '-x+1/2, y+1/2, z'
   'x+1/2, y+1/2, z+1/2'
   '-x+1/2, -y+1/2, -z+1/2'
   '-x+1/2, -y+1/2, z+1/2'
   'x+1/2, y+1/2, -z+1/2'
   '-x, y, -z+1/2'
   'x, -y, z+1/2'
   'x, -y, -z+1/2'
   '-x, y, z+1/2'

loop_
_atom_site_label
_atom_site_type_symbol
_atom_site_fract_x
_atom_site_fract_y
_atom_site_fract_z
_atom_site_charge
C1     C     0.23229     0.63719     0.01905     0
C2     C     0.28010     0.64299     0.01909     0
C3     C     0.25613     0.63992     0.03797     0
C4     C     0.30324     0.64813     0.03951     0
C5     C     0.34717     0.65845     0.07769     0
C6     C     0.37034     0.66381     0.09768     0
N7     N     0.36825     0.67465     0.11074     0
C8     C     0.48025     0.71873     0.23002     0
C9     C     0.01741     0.50871     0.22692     0
C10     C     0.04670     0.52646     0.18748     0
C11     C     0.06181     0.53580     0.16687     0
N12     N     0.10530     0.56260     0.10762     0
C13     C     0.09740     0.57357     0.10067     0
C14     C     0.11472     0.58187     0.07949     0
C15     C     0.14689     0.59815     0.03964     0
C16     C     0.17746     0.61599     0.03798     0
C17     C     0.16361     0.60684     0.01908     0
C18     C     0.19087     0.62509     0.01902     0
C19     C     0.18819     0.64683     0.01906     0
C20     C     0.17616     0.65630     0.03803     0
C21     C     0.16409     0.66590     0.01907     0
C22     C     0.15329     0.67628     0.03938     0
C23     C     0.13288     0.69656     0.07614     0
C24     C     0.12274     0.70730     0.09555     0
N25     N     0.09677     0.70868     0.10212     0
C26     C     0.08416     0.71848     0.12137     0
C27     C     0.05593     0.73681     0.16003     0
C28     C     0.04178     0.74608     0.18196     0
C29     C     0.01535     0.76390     0.22451     0
C30     C     0.20381     0.63629     0.03587     0
C31     C     0.39426     0.09375     0.07375     0
C32     C     0.37826     0.10184     0.05404     0
C33     C     0.34400     0.08630     0.04524     0
C34     C     0.35999     0.07818     0.06500     0
C35     C     0.15065     0.14671     0.06365     0
C36     C     0.17252     0.14157     0.04471     0
C37     C     0.19904     0.15981     0.05362     0
C38     C     0.17729     0.16495     0.07251     0
C39     C     0.01032     0.21201     0.20023     0
C40     C     0.02791     0.20433     0.18134     0
C41     C     0.05517     0.20285     0.19242     0
C42     C     0.06399     0.20863     0.22387     0
C43     C     0.04646     0.21630     0.24271     0
C44     C     0.07455     0.19543     0.17111     0
C45     C     0.00675     0.51360     0.19478     0
C46     C     0.02137     0.52217     0.17510     0
C47     C     0.05687     0.52214     0.22031     0
C48     C     0.04224     0.51355     0.24003     0
C49     C     0.09011     0.53471     0.16034     0
C50     C     0.10396     0.54361     0.14078     0
C51     C     0.09005     0.55375     0.12766     0
C52     C     0.06166     0.55475     0.13370     0
C53     C     0.04778     0.54587     0.15319     0
C54     C     0.83888     0.30472     0.07013     0
C55     C     0.82874     0.31480     0.05191     0
C56     C     0.87490     0.32253     0.04539     0
C57     C     0.88509     0.31245     0.06366     0
C58     C     0.99389     0.23877     0.18940     0
C59     C     0.98056     0.24741     0.16828     0
C60     C     0.94947     0.25164     0.21716     0
C61     C     0.96272     0.24303     0.23825     0
C62     C     0.91382     0.26388     0.16025     0
C63     C     0.90060     0.27300     0.14117     0
C64     C     0.94453     0.28082     0.12115     0
C65     C     0.95858     0.27184     0.14009     0
C66     C     0.43298     0.68389     0.15890     0
C67     C     0.41458     0.67686     0.13901     0
C68     C     0.38828     0.68133     0.13088     0
C69     C     0.38098     0.69287     0.14273     0
C70     C     0.39926     0.69990     0.16259     0
F71     F     0.60846     0.28882     0.17265     0
F72     F     0.48638     0.22803     -0.14008     0
F73     F     0.10424     0.47510     0.32801     0
H74     H     0.25614     0.63966     0.06859     0
H75     H     0.39002     0.65843     0.10162     0
H76     H     0.07678     0.57693     0.11098     0
H77     H     0.17766     0.61593     0.06861     0
H78     H     0.17617     0.65621     0.06866     0
H79     H     0.13775     0.71452     0.10499     0
H80     H     0.20380     0.63628     0.06650     0
H81     H     0.41477     0.09678     0.08530     0
H82     H     0.38566     0.11149     0.04962     0
H83     H     0.32350     0.08328     0.03365     0
H84     H     0.35255     0.06853     0.06942     0
H85     H     0.13094     0.14137     0.06775     0
H86     H     0.17064     0.13203     0.03347     0
H87     H     0.21881     0.16512     0.04960     0
H88     H     0.17926     0.17447     0.08386     0
H89     H     -0.01200     0.21292     0.19165     0
H90     H     0.02012     0.19923     0.15678     0
H91     H     0.08567     0.20708     0.23427     0
H92     H     0.05362     0.22071     0.26875     0
H93     H     -0.01414     0.51055     0.18451     0
H94     H     0.01255     0.52569     0.14874     0
H95     H     0.07723     0.52564     0.23112     0
H96     H     0.05064     0.51046     0.26709     0
H97     H     0.12684     0.54265     0.13536     0
H98     H     0.04990     0.56283     0.12267     0
H99     H     0.02482     0.54686     0.15794     0
H100     H     0.82420     0.29747     0.08022     0
H101     H     0.80578     0.31579     0.04719     0
H102     H     0.88955     0.32980     0.03535     0
H103     H     0.90805     0.31150     0.06850     0
H104     H     1.01248     0.23377     0.17835     0
H105     H     0.98783     0.24922     0.13967     0
H106     H     0.93135     0.25689     0.22853     0
H107     H     0.95591     0.24147     0.26718     0
H108     H     0.90132     0.25697     0.17598     0
H109     H     0.87729     0.27361     0.14150     0
H110     H     0.95641     0.28782     0.10498     0
H111     H     0.45428     0.68026     0.16532     0
H112     H     0.42086     0.66749     0.12935     0
H113     H     0.35985     0.69666     0.13620     0
C114     H     0.50000     0.72735     0.25000     0
C115     H     0.00000     0.50000     0.25000     0
