
data_JUC-596

_audit_creation_method RASPA-1.0
_audit_creation_date 2022-6-6
_audit_author_name 'By Student'

_citation_author_name        'Chengyang Yu, Hui Li, Yujie Wang, et al.,''
_citation_title              'Three-Dimensional Triptycene-Functionalized Covalent Organic Frameworks with hea Net for Hydrogen Adsorption'
_citation_journal_abbrev     'Angew. Chem. Int.'
_citation_journal_volume     0000
_citation_journal_number     0000
_citation_page_first         e202117101
_citation_page_last          e202117106
_citation_year               2022

_cell_length_a                         22.95190
_cell_length_b                         22.95190
_cell_length_c                         39.79940
_cell_angle_alpha                      90
_cell_angle_beta                       90
_cell_angle_gamma                      120
_cell_volume                           18.157

_symmetry_cell_setting                 Hexagonal
_symmetry_space_group_name_Hall        'P 6/m c c'
_symmetry_space_group_name_H-M         'P 6/m c c'
_symmetry_Int_Tables_number            192

loop_
_space_group_symop_operation_xyz
   'x, y, z'
   '-x, -y, -z'
   '-y, x-y, z'
   'y, -x+y, -z'
   '-x+y, -x, z'
   'x-y, x, -z'
   '-x, -y, z'
   'x, y, -z'
   'y, -x+y, z'
   '-y, x-y, -z'
   'x-y, x, z'
   '-x+y, -x, -z'
   'y, x, -z+1/2'
   '-y, -x, z+1/2'
   'x-y, -y, -z+1/2'
   '-x+y, y, z+1/2'
   '-x, -x+y, -z+1/2'
   'x, x-y, z+1/2'
   '-y, -x, -z+1/2'
   'y, x, z+1/2'
   '-x+y, y, -z+1/2'
   'x-y, -y, z+1/2'
   'x, x-y, -z+1/2'
   '-x, -x+y, z+1/2'

loop_
_atom_site_label
_atom_site_type_symbol
_atom_site_fract_x
_atom_site_fract_y
_atom_site_fract_z
_atom_site_charge
H1     H     0.30193     0.26338     0.11162     0
C2     C     0.34701     0.29988     0.09874     0
N3     N     0.40221     0.29735     0.10080     0
C4     C     0.46985     0.24578     0.11368     0
H5     H     0.50389     0.27578     0.09380     0
C6     C     0.48345     0.20225     0.13224     0
F7     F     0.53832     0.19736     0.12425     0
C8     C     0.44026     0.16359     0.15850     0
C9     C     0.38280     0.16864     0.16519     0
H10     H     0.34934     0.14050     0.18563     0
C11     C     0.36908     0.21181     0.14640     0
H12     H     0.32546     0.21558     0.15308     0
C13     C     0.41264     0.25072     0.12034     0
C14     C     0.28271     0.35030     0.07327     0
F15     F     0.22570     0.30256     0.08843     0
C16     C     0.27972     0.39872     0.05318     0
H17     H     0.23225     0.39755     0.05010     0
C18     C     0.33782     0.44882     0.03740     0
C19     C     0.39911     0.45070     0.04211     0
H20     H     0.44448     0.49034     0.03075     0
C21     C     0.40231     0.40217     0.06188     0
H22     H     0.45047     0.40488     0.06503     0
C23     C     0.34410     0.35138     0.07767     0
C24     C     0.33354     0.60624     0.01779     0
C25     C     0.33557     0.50209     0.01785     0
C26     C     0.40499     0.05632     0.19006     0
H27     H     0.35416     0.03600     0.18071     0
C28     C     0.41902     0.01778     0.21229     0
H29     H     0.37855    -0.03171     0.21908     0
C30     C     0.48416     0.04292     0.22580     0
C31     C     0.53607     0.10454     0.21304     0
H32     H     0.58789     0.12353     0.22033     0
C33     C     0.52187     0.14359     0.19139     0
H34     H     0.56251     0.19266     0.18413     0
C35     C     0.45601     0.12034     0.17998     0
C36     C     0.44542     0.66540     0.53548     0
H37     H     0.44426     0.66433     0.56259     0
C38     C     0.00000     0.50000     0.25000     0
C39     C     0.33333     0.66667     0.53358     0
H40     H     0.33333     0.66667     0.56152     0

